# vtk DataFile Version 3.0
Scalar Field Data
ASCII
DATASET STRUCTURED_POINTS
DIMENSIONS 11 11 1
ORIGIN 0 0 0
SPACING 0.1 0.1 1
POINT_DATA 121
SCALARS scalars double
LOOKUP_TABLE default
0
0.1
0.2
0.3
0.4
0.5
0.6
0.7
0.8
0.9
1
0.1
0.557084
0.877774
0.977772
0.857081
0.599995
0.342909
0.222219
0.32222
0.642913
1.1
0.2
0.877774
1.33486
1.43485
1.17777
0.69999
0.222214
-0.0348705
0.0651317
0.52222
1.2
0.3
0.977772
1.43485
1.53485
1.27776
0.799986
0.32221
0.0651264
0.16513
0.622219
1.3
0.4
0.857081
1.17777
1.27776
1.15707
0.899984
0.642899
0.52221
0.622214
0.942909
1.4
0.5
0.599995
0.69999
0.799986
0.899984
0.999983
1.09998
1.19999
1.29999
1.39999
1.5
0.6
0.342909
0.222214
0.32221
0.642899
1.09998
1.55707
1.87776
1.97777
1.85708
1.6
0.7
0.222219
-0.0348705
0.0651264
0.52221
1.19999
1.87776
2.33485
2.43485
2.17777
1.7
0.8
0.32222
0.0651317
0.16513
0.622214
1.29999
1.97777
2.43485
2.53486
2.27777
1.8
0.9
0.642913
0.52222
0.622219
0.942909
1.39999
1.85708
2.17777
2.27777
2.15708
1.9
1
1.1
1.2
1.3
1.4
1.5
1.6
1.7
1.8
1.9
2
