# vtk DataFile Version 3.0
Scalar Field Data
ASCII
DATASET STRUCTURED_POINTS
DIMENSIONS 101 101 1
ORIGIN 0 0 0
SPACING 0.01 0.01 1
POINT_DATA 10201
SCALARS scalars double
LOOKUP_TABLE default
0
0
0
0
0
0
0
0
0
0
0
0
0
0
0
0
0
0
0
0
0
0
0
0
0
0
0
0
0
0
0
0
0
0
0
0
0
0
0
0
0
0
0
0
0
0
0
0
0
0
0
0
0
0
0
0
0
0
0
0
0
0
0
0
0
0
0
0
0
0
0
0
0
0
0
0
0
0
0
0
0
0
0
0
0
0
0
0
0
0
0
0
0
0
0
0
0
0
0
0
0
0
0.00393613
0.00785673
0.0117463
0.0155896
0.0193713
0.0230765
0.0266907
0.0301996
0.0335892
0.0368463
0.039958
0.042912
0.0456967
0.048301
0.0507146
0.0529282
0.0549328
0.0567206
0.0582846
0.0596186
0.0607173
0.0615764
0.0621924
0.062563
0.0626867
0.062563
0.0621924
0.0615764
0.0607173
0.0596186
0.0582846
0.0567206
0.0549328
0.0529282
0.0507146
0.048301
0.0456967
0.042912
0.039958
0.0368463
0.0335892
0.0301996
0.0266907
0.0230765
0.0193713
0.0155896
0.0117463
0.00785673
0.00393613
5.73385e-18
-0.00393613
-0.00785673
-0.0117463
-0.0155896
-0.0193713
-0.0230765
-0.0266907
-0.0301996
-0.0335892
-0.0368463
-0.039958
-0.042912
-0.0456967
-0.048301
-0.0507146
-0.0529282
-0.0549328
-0.0567206
-0.0582846
-0.0596186
-0.0607173
-0.0615764
-0.0621924
-0.062563
-0.0626867
-0.062563
-0.0621924
-0.0615764
-0.0607173
-0.0596186
-0.0582846
-0.0567206
-0.0549328
-0.0529282
-0.0507146
-0.048301
-0.0456967
-0.042912
-0.039958
-0.0368463
-0.0335892
-0.0301996
-0.0266907
-0.0230765
-0.0193713
-0.0155896
-0.0117463
-0.00785673
-0.00393613
0
0
0.00785673
0.0156825
0.0234463
0.0311176
0.0386661
0.046062
0.0532761
0.0602799
0.0670459
0.0735472
0.0797583
0.0856547
0.091213
0.0964113
0.101229
0.105647
0.109649
0.113217
0.116339
0.119002
0.121195
0.12291
0.124139
0.124879
0.125126
0.124879
0.124139
0.12291
0.121195
0.119002
0.116339
0.113217
0.109649
0.105647
0.101229
0.0964113
0.091213
0.0856547
0.0797583
0.0735472
0.0670459
0.0602799
0.0532761
0.046062
0.0386661
0.0311176
0.0234463
0.0156825
0.00785673
9.75326e-18
-0.00785673
-0.0156825
-0.0234463
-0.0311176
-0.0386661
-0.046062
-0.0532761
-0.0602799
-0.0670459
-0.0735472
-0.0797583
-0.0856547
-0.091213
-0.0964113
-0.101229
-0.105647
-0.109649
-0.113217
-0.116339
-0.119002
-0.121195
-0.12291
-0.124139
-0.124879
-0.125126
-0.124879
-0.124139
-0.12291
-0.121195
-0.119002
-0.116339
-0.113217
-0.109649
-0.105647
-0.101229
-0.0964113
-0.091213
-0.0856547
-0.0797583
-0.0735472
-0.0670459
-0.0602799
-0.0532761
-0.046062
-0.0386661
-0.0311176
-0.0234463
-0.0156825
-0.00785673
0
0
0.0117463
0.0234463
0.0350537
0.0465228
0.0578083
0.0688656
0.0796512
0.0901224
0.100238
0.109958
0.119244
0.128059
0.136369
0.144141
0.151344
0.15795
0.163932
0.169267
0.173935
0.177916
0.181194
0.183758
0.185596
0.186702
0.187072
0.186702
0.185596
0.183758
0.181194
0.177916
0.173935
0.169267
0.163932
0.15795
0.151344
0.144141
0.136369
0.128059
0.119244
0.109958
0.100238
0.0901224
0.0796512
0.0688656
0.0578083
0.0465228
0.0350537
0.0234463
0.0117463
1.74028e-17
-0.0117463
-0.0234463
-0.0350537
-0.0465228
-0.0578083
-0.0688656
-0.0796512
-0.0901224
-0.100238
-0.109958
-0.119244
-0.128059
-0.136369
-0.144141
-0.151344
-0.15795
-0.163932
-0.169267
-0.173935
-0.177916
-0.181194
-0.183758
-0.185596
-0.186702
-0.187072
-0.186702
-0.185596
-0.183758
-0.181194
-0.177916
-0.173935
-0.169267
-0.163932
-0.15795
-0.151344
-0.144141
-0.136369
-0.128059
-0.119244
-0.109958
-0.100238
-0.0901224
-0.0796512
-0.0688656
-0.0578083
-0.0465228
-0.0350537
-0.0234463
-0.0117463
0
0
0.0155896
0.0311176
0.0465228
0.0617444
0.0767224
0.0913975
0.105712
0.119609
0.133034
0.145935
0.158259
0.169959
0.180987
0.191302
0.200862
0.209629
0.217568
0.224649
0.230844
0.236127
0.240479
0.243881
0.246321
0.247789
0.248279
0.247789
0.246321
0.243881
0.240479
0.236127
0.230844
0.224649
0.217568
0.209629
0.200862
0.191302
0.180987
0.169959
0.158259
0.145935
0.133034
0.119609
0.105712
0.0913975
0.0767224
0.0617444
0.0465228
0.0311176
0.0155896
2.1323e-17
-0.0155896
-0.0311176
-0.0465228
-0.0617444
-0.0767224
-0.0913975
-0.105712
-0.119609
-0.133034
-0.145935
-0.158259
-0.169959
-0.180987
-0.191302
-0.200862
-0.209629
-0.217568
-0.224649
-0.230844
-0.236127
-0.240479
-0.243881
-0.246321
-0.247789
-0.248279
-0.247789
-0.246321
-0.243881
-0.240479
-0.236127
-0.230844
-0.224649
-0.217568
-0.209629
-0.200862
-0.191302
-0.180987
-0.169959
-0.158259
-0.145935
-0.133034
-0.119609
-0.105712
-0.0913975
-0.0767224
-0.0617444
-0.0465228
-0.0311176
-0.0155896
0
0
0.0193713
0.0386661
0.0578083
0.0767224
0.0953336
0.113569
0.131356
0.148624
0.165306
0.181335
0.196649
0.211187
0.224891
0.237708
0.249587
0.26048
0.270346
0.279145
0.286842
0.293407
0.298814
0.303042
0.306074
0.307897
0.308506
0.307897
0.306074
0.303042
0.298814
0.293407
0.286842
0.279145
0.270346
0.26048
0.249587
0.237708
0.224891
0.211187
0.196649
0.181335
0.165306
0.148624
0.131356
0.113569
0.0953336
0.0767224
0.0578083
0.0386661
0.0193713
2.94891e-17
-0.0193713
-0.0386661
-0.0578083
-0.0767224
-0.0953336
-0.113569
-0.131356
-0.148624
-0.165306
-0.181335
-0.196649
-0.211187
-0.224891
-0.237708
-0.249587
-0.26048
-0.270346
-0.279145
-0.286842
-0.293407
-0.298814
-0.303042
-0.306074
-0.307897
-0.308506
-0.307897
-0.306074
-0.303042
-0.298814
-0.293407
-0.286842
-0.279145
-0.270346
-0.26048
-0.249587
-0.237708
-0.224891
-0.211187
-0.196649
-0.181335
-0.165306
-0.148624
-0.131356
-0.113569
-0.0953336
-0.0767224
-0.0578083
-0.0386661
-0.0193713
0
0
0.0230765
0.046062
0.0688656
0.0913975
0.113569
0.135292
0.156481
0.177052
0.196925
0.21602
0.234264
0.251582
0.267908
0.283176
0.297327
0.310304
0.322057
0.332538
0.341708
0.349529
0.35597
0.361006
0.364618
0.366791
0.367516
0.366791
0.364618
0.361006
0.35597
0.349529
0.341708
0.332538
0.322057
0.310304
0.297327
0.283176
0.267908
0.251582
0.234264
0.21602
0.196925
0.177052
0.156481
0.135292
0.113569
0.0913975
0.0688656
0.046062
0.0230765
3.2562e-17
-0.0230765
-0.046062
-0.0688656
-0.0913975
-0.113569
-0.135292
-0.156481
-0.177052
-0.196925
-0.21602
-0.234264
-0.251582
-0.267908
-0.283176
-0.297327
-0.310304
-0.322057
-0.332538
-0.341708
-0.349529
-0.35597
-0.361006
-0.364618
-0.366791
-0.367516
-0.366791
-0.364618
-0.361006
-0.35597
-0.349529
-0.341708
-0.332538
-0.322057
-0.310304
-0.297327
-0.283176
-0.267908
-0.251582
-0.234264
-0.21602
-0.196925
-0.177052
-0.156481
-0.135292
-0.113569
-0.0913975
-0.0688656
-0.046062
-0.0230765
0
0
0.0266907
0.0532761
0.0796512
0.105712
0.131356
0.156481
0.180988
0.204782
0.227767
0.249853
0.270953
0.290984
0.309867
0.327526
0.343893
0.358903
0.372496
0.38462
0.395225
0.404271
0.411721
0.417546
0.421724
0.424237
0.425075
0.424237
0.421724
0.417546
0.411721
0.404271
0.395225
0.38462
0.372496
0.358903
0.343893
0.327526
0.309867
0.290984
0.270953
0.249853
0.227767
0.204782
0.180988
0.156481
0.131356
0.105712
0.0796512
0.0532761
0.0266907
4.13653e-17
-0.0266907
-0.0532761
-0.0796512
-0.105712
-0.131356
-0.156481
-0.180988
-0.204782
-0.227767
-0.249853
-0.270953
-0.290984
-0.309867
-0.327526
-0.343893
-0.358903
-0.372496
-0.38462
-0.395225
-0.404271
-0.411721
-0.417546
-0.421724
-0.424237
-0.425075
-0.424237
-0.421724
-0.417546
-0.411721
-0.404271
-0.395225
-0.38462
-0.372496
-0.358903
-0.343893
-0.327526
-0.309867
-0.290984
-0.270953
-0.249853
-0.227767
-0.204782
-0.180988
-0.156481
-0.131356
-0.105712
-0.0796512
-0.0532761
-0.0266907
0
0
0.0301996
0.0602799
0.0901224
0.119609
0.148624
0.177052
0.204782
0.231703
0.25771
0.2827
0.306574
0.329238
0.350603
0.370584
0.389103
0.406086
0.421466
0.435183
0.447183
0.457418
0.465847
0.472438
0.477165
0.480008
0.480957
0.480008
0.477165
0.472438
0.465847
0.457418
0.447183
0.435183
0.421466
0.406086
0.389103
0.370584
0.350603
0.329238
0.306574
0.2827
0.25771
0.231703
0.204782
0.177052
0.148624
0.119609
0.0901224
0.0602799
0.0301996
4.79985e-17
-0.0301996
-0.0602799
-0.0901224
-0.119609
-0.148624
-0.177052
-0.204782
-0.231703
-0.25771
-0.2827
-0.306574
-0.329238
-0.350603
-0.370584
-0.389103
-0.406086
-0.421466
-0.435183
-0.447183
-0.457418
-0.465847
-0.472438
-0.477165
-0.480008
-0.480957
-0.480008
-0.477165
-0.472438
-0.465847
-0.457418
-0.447183
-0.435183
-0.421466
-0.406086
-0.389103
-0.370584
-0.350603
-0.329238
-0.306574
-0.2827
-0.25771
-0.231703
-0.204782
-0.177052
-0.148624
-0.119609
-0.0901224
-0.0602799
-0.0301996
0
0
0.0335892
0.0670459
0.100238
0.133034
0.165306
0.196925
0.227767
0.25771
0.286636
0.31443
0.340984
0.366192
0.389955
0.412179
0.432776
0.451666
0.468772
0.484029
0.497376
0.508759
0.518135
0.525466
0.530723
0.533885
0.534941
0.533885
0.530723
0.525466
0.518135
0.508759
0.497376
0.484029
0.468772
0.451666
0.432776
0.412179
0.389955
0.366192
0.340984
0.31443
0.286636
0.25771
0.227767
0.196925
0.165306
0.133034
0.100238
0.0670459
0.0335892
5.39675e-17
-0.0335892
-0.0670459
-0.100238
-0.133034
-0.165306
-0.196925
-0.227767
-0.25771
-0.286636
-0.31443
-0.340984
-0.366192
-0.389955
-0.412179
-0.432776
-0.451666
-0.468772
-0.484029
-0.497376
-0.508759
-0.518135
-0.525466
-0.530723
-0.533885
-0.534941
-0.533885
-0.530723
-0.525466
-0.518135
-0.508759
-0.497376
-0.484029
-0.468772
-0.451666
-0.432776
-0.412179
-0.389955
-0.366192
-0.340984
-0.31443
-0.286636
-0.25771
-0.227767
-0.196925
-0.165306
-0.133034
-0.100238
-0.0670459
-0.0335892
0
0
0.0368463
0.0735472
0.109958
0.145935
0.181335
0.21602
0.249853
0.2827
0.31443
0.34492
0.374049
0.401702
0.427769
0.452148
0.474742
0.495463
0.514229
0.530965
0.545605
0.558093
0.568378
0.57642
0.582186
0.585656
0.586814
0.585656
0.582186
0.57642
0.568378
0.558093
0.545605
0.530965
0.514229
0.495463
0.474742
0.452148
0.427769
0.401702
0.374049
0.34492
0.31443
0.2827
0.249853
0.21602
0.181335
0.145935
0.109958
0.0735472
0.0368463
6.67894e-17
-0.0368463
-0.0735472
-0.109958
-0.145935
-0.181335
-0.21602
-0.249853
-0.2827
-0.31443
-0.34492
-0.374049
-0.401702
-0.427769
-0.452148
-0.474742
-0.495463
-0.514229
-0.530965
-0.545605
-0.558093
-0.568378
-0.57642
-0.582186
-0.585656
-0.586814
-0.585656
-0.582186
-0.57642
-0.568378
-0.558093
-0.545605
-0.530965
-0.514229
-0.495463
-0.474742
-0.452148
-0.427769
-0.401702
-0.374049
-0.34492
-0.31443
-0.2827
-0.249853
-0.21602
-0.181335
-0.145935
-0.109958
-0.0735472
-0.0368463
0
0
0.039958
0.0797583
0.119244
0.158259
0.196649
0.234264
0.270953
0.306574
0.340984
0.374049
0.405638
0.435625
0.463894
0.490332
0.514834
0.537305
0.557656
0.575805
0.591682
0.605224
0.616378
0.625098
0.631352
0.635115
0.63637
0.635115
0.631352
0.625098
0.616378
0.605224
0.591682
0.575805
0.557656
0.537305
0.514834
0.490332
0.463894
0.435625
0.405638
0.374049
0.340984
0.306574
0.270953
0.234264
0.196649
0.158259
0.119244
0.0797583
0.039958
7.17288e-17
-0.039958
-0.0797583
-0.119244
-0.158259
-0.196649
-0.234264
-0.270953
-0.306574
-0.340984
-0.374049
-0.405638
-0.435625
-0.463894
-0.490332
-0.514834
-0.537305
-0.557656
-0.575805
-0.591682
-0.605224
-0.616378
-0.625098
-0.631352
-0.635115
-0.63637
-0.635115
-0.631352
-0.625098
-0.616378
-0.605224
-0.591682
-0.575805
-0.557656
-0.537305
-0.514834
-0.490332
-0.463894
-0.435625
-0.405638
-0.374049
-0.340984
-0.306574
-0.270953
-0.234264
-0.196649
-0.158259
-0.119244
-0.0797583
-0.039958
0
0
0.042912
0.0856547
0.128059
0.169959
0.211187
0.251582
0.290984
0.329238
0.366192
0.401702
0.435625
0.46783
0.498188
0.526581
0.552895
0.577027
0.598882
0.618373
0.635424
0.649967
0.661945
0.67131
0.678027
0.682067
0.683416
0.682067
0.678027
0.67131
0.661945
0.649967
0.635424
0.618373
0.598882
0.577027
0.552895
0.526581
0.498188
0.46783
0.435625
0.401702
0.366192
0.329238
0.290984
0.251582
0.211187
0.169959
0.128059
0.0856547
0.042912
8.61394e-17
-0.042912
-0.0856547
-0.128059
-0.169959
-0.211187
-0.251582
-0.290984
-0.329238
-0.366192
-0.401702
-0.435625
-0.46783
-0.498188
-0.526581
-0.552895
-0.577027
-0.598882
-0.618373
-0.635424
-0.649967
-0.661945
-0.67131
-0.678027
-0.682067
-0.683416
-0.682067
-0.678027
-0.67131
-0.661945
-0.649967
-0.635424
-0.618373
-0.598882
-0.577027
-0.552895
-0.526581
-0.498188
-0.46783
-0.435625
-0.401702
-0.366192
-0.329238
-0.290984
-0.251582
-0.211187
-0.169959
-0.128059
-0.0856547
-0.042912
0
0
0.0456967
0.091213
0.136369
0.180987
0.224891
0.267908
0.309867
0.350603
0.389955
0.427769
0.463894
0.498188
0.530517
0.560751
0.588773
0.614471
0.637744
0.6585
0.676657
0.692144
0.7049
0.714873
0.722025
0.726328
0.727764
0.726328
0.722025
0.714873
0.7049
0.692144
0.676657
0.6585
0.637744
0.614471
0.588773
0.560751
0.530517
0.498188
0.463894
0.427769
0.389955
0.350603
0.309867
0.267908
0.224891
0.180987
0.136369
0.091213
0.0456967
9.19826e-17
-0.0456967
-0.091213
-0.136369
-0.180987
-0.224891
-0.267908
-0.309867
-0.350603
-0.389955
-0.427769
-0.463894
-0.498188
-0.530517
-0.560751
-0.588773
-0.614471
-0.637744
-0.6585
-0.676657
-0.692144
-0.7049
-0.714873
-0.722025
-0.726328
-0.727764
-0.726328
-0.722025
-0.714873
-0.7049
-0.692144
-0.676657
-0.6585
-0.637744
-0.614471
-0.588773
-0.560751
-0.530517
-0.498188
-0.463894
-0.427769
-0.389955
-0.350603
-0.309867
-0.267908
-0.224891
-0.180987
-0.136369
-0.091213
-0.0456967
0
0
0.048301
0.0964113
0.144141
0.191302
0.237708
0.283176
0.327526
0.370584
0.412179
0.452148
0.490332
0.526581
0.560751
0.592709
0.622328
0.64949
0.67409
0.696029
0.715221
0.73159
0.745072
0.755614
0.763174
0.767722
0.76924
0.767722
0.763174
0.755614
0.745072
0.73159
0.715221
0.696029
0.67409
0.64949
0.622328
0.592709
0.560751
0.526581
0.490332
0.452148
0.412179
0.370584
0.327526
0.283176
0.237708
0.191302
0.144141
0.0964113
0.048301
1.11603e-16
-0.048301
-0.0964113
-0.144141
-0.191302
-0.237708
-0.283176
-0.327526
-0.370584
-0.412179
-0.452148
-0.490332
-0.526581
-0.560751
-0.592709
-0.622328
-0.64949
-0.67409
-0.696029
-0.715221
-0.73159
-0.745072
-0.755614
-0.763174
-0.767722
-0.76924
-0.767722
-0.763174
-0.755614
-0.745072
-0.73159
-0.715221
-0.696029
-0.67409
-0.64949
-0.622328
-0.592709
-0.560751
-0.526581
-0.490332
-0.452148
-0.412179
-0.370584
-0.327526
-0.283176
-0.237708
-0.191302
-0.144141
-0.0964113
-0.048301
0
0
0.0507146
0.101229
0.151344
0.200862
0.249587
0.297327
0.343893
0.389103
0.432776
0.474742
0.514834
0.552895
0.588773
0.622328
0.653427
0.681946
0.707775
0.73081
0.750962
0.768149
0.782305
0.793373
0.801311
0.806086
0.80768
0.806086
0.801311
0.793373
0.782305
0.768149
0.750962
0.73081
0.707775
0.681946
0.653427
0.622328
0.588773
0.552895
0.514834
0.474742
0.432776
0.389103
0.343893
0.297327
0.249587
0.200862
0.151344
0.101229
0.0507146
1.07466e-16
-0.0507146
-0.101229
-0.151344
-0.200862
-0.249587
-0.297327
-0.343893
-0.389103
-0.432776
-0.474742
-0.514834
-0.552895
-0.588773
-0.622328
-0.653427
-0.681946
-0.707775
-0.73081
-0.750962
-0.768149
-0.782305
-0.793373
-0.801311
-0.806086
-0.80768
-0.806086
-0.801311
-0.793373
-0.782305
-0.768149
-0.750962
-0.73081
-0.707775
-0.681946
-0.653427
-0.622328
-0.588773
-0.552895
-0.514834
-0.474742
-0.432776
-0.389103
-0.343893
-0.297327
-0.249587
-0.200862
-0.151344
-0.101229
-0.0507146
0
0
0.0529282
0.105647
0.15795
0.209629
0.26048
0.310304
0.358903
0.406086
0.451666
0.495463
0.537305
0.577027
0.614471
0.64949
0.681946
0.711711
0.738667
0.762708
0.783739
0.801676
0.81645
0.828002
0.836285
0.841269
0.842932
0.841269
0.836285
0.828002
0.81645
0.801676
0.783739
0.762708
0.738667
0.711711
0.681946
0.64949
0.614471
0.577027
0.537305
0.495463
0.451666
0.406086
0.358903
0.310304
0.26048
0.209629
0.15795
0.105647
0.0529282
1.35977e-16
-0.0529282
-0.105647
-0.15795
-0.209629
-0.26048
-0.310304
-0.358903
-0.406086
-0.451666
-0.495463
-0.537305
-0.577027
-0.614471
-0.64949
-0.681946
-0.711711
-0.738667
-0.762708
-0.783739
-0.801676
-0.81645
-0.828002
-0.836285
-0.841269
-0.842932
-0.841269
-0.836285
-0.828002
-0.81645
-0.801676
-0.783739
-0.762708
-0.738667
-0.711711
-0.681946
-0.64949
-0.614471
-0.577027
-0.537305
-0.495463
-0.451666
-0.406086
-0.358903
-0.310304
-0.26048
-0.209629
-0.15795
-0.105647
-0.0529282
0
0
0.0549328
0.109649
0.163932
0.217568
0.270346
0.322057
0.372496
0.421466
0.468772
0.514229
0.557656
0.598882
0.637744
0.67409
0.707775
0.738667
0.766644
0.791595
0.813422
0.832039
0.847373
0.859362
0.86796
0.873132
0.874858
0.873132
0.86796
0.859362
0.847373
0.832039
0.813422
0.791595
0.766644
0.738667
0.707775
0.67409
0.637744
0.598882
0.557656
0.514229
0.468772
0.421466
0.372496
0.322057
0.270346
0.217568
0.163932
0.109649
0.0549328
1.2526e-16
-0.0549328
-0.109649
-0.163932
-0.217568
-0.270346
-0.322057
-0.372496
-0.421466
-0.468772
-0.514229
-0.557656
-0.598882
-0.637744
-0.67409
-0.707775
-0.738667
-0.766644
-0.791595
-0.813422
-0.832039
-0.847373
-0.859362
-0.86796
-0.873132
-0.874858
-0.873132
-0.86796
-0.859362
-0.847373
-0.832039
-0.813422
-0.791595
-0.766644
-0.738667
-0.707775
-0.67409
-0.637744
-0.598882
-0.557656
-0.514229
-0.468772
-0.421466
-0.372496
-0.322057
-0.270346
-0.217568
-0.163932
-0.109649
-0.0549328
0
0
0.0567206
0.113217
0.169267
0.224649
0.279145
0.332538
0.38462
0.435183
0.484029
0.530965
0.575805
0.618373
0.6585
0.696029
0.73081
0.762708
0.791595
0.817359
0.839896
0.859119
0.874952
0.887331
0.896208
0.901549
0.903331
0.901549
0.896208
0.887331
0.874952
0.859119
0.839896
0.817359
0.791595
0.762708
0.73081
0.696029
0.6585
0.618373
0.575805
0.530965
0.484029
0.435183
0.38462
0.332538
0.279145
0.224649
0.169267
0.113217
0.0567206
1.59435e-16
-0.0567206
-0.113217
-0.169267
-0.224649
-0.279145
-0.332538
-0.38462
-0.435183
-0.484029
-0.530965
-0.575805
-0.618373
-0.6585
-0.696029
-0.73081
-0.762708
-0.791595
-0.817359
-0.839896
-0.859119
-0.874952
-0.887331
-0.896208
-0.901549
-0.903331
-0.901549
-0.896208
-0.887331
-0.874952
-0.859119
-0.839896
-0.817359
-0.791595
-0.762708
-0.73081
-0.696029
-0.6585
-0.618373
-0.575805
-0.530965
-0.484029
-0.435183
-0.38462
-0.332538
-0.279145
-0.224649
-0.169267
-0.113217
-0.0567206
0
0
0.0582846
0.116339
0.173935
0.230844
0.286842
0.341708
0.395225
0.447183
0.497376
0.545605
0.591682
0.635424
0.676657
0.715221
0.750962
0.783739
0.813422
0.839896
0.863055
0.882808
0.899077
0.911798
0.92092
0.926408
0.92824
0.926408
0.92092
0.911798
0.899077
0.882808
0.863055
0.839896
0.813422
0.783739
0.750962
0.715221
0.676657
0.635424
0.591682
0.545605
0.497376
0.447183
0.395225
0.341708
0.286842
0.230844
0.173935
0.116339
0.0582846
1.42089e-16
-0.0582846
-0.116339
-0.173935
-0.230844
-0.286842
-0.341708
-0.395225
-0.447183
-0.497376
-0.545605
-0.591682
-0.635424
-0.676657
-0.715221
-0.750962
-0.783739
-0.813422
-0.839896
-0.863055
-0.882808
-0.899077
-0.911798
-0.92092
-0.926408
-0.92824
-0.926408
-0.92092
-0.911798
-0.899077
-0.882808
-0.863055
-0.839896
-0.813422
-0.783739
-0.750962
-0.715221
-0.676657
-0.635424
-0.591682
-0.545605
-0.497376
-0.447183
-0.395225
-0.341708
-0.286842
-0.230844
-0.173935
-0.116339
-0.0582846
0
0
0.0596186
0.119002
0.177916
0.236127
0.293407
0.349529
0.404271
0.457418
0.508759
0.558093
0.605224
0.649967
0.692144
0.73159
0.768149
0.801676
0.832039
0.859119
0.882808
0.903013
0.919655
0.932666
0.941997
0.947611
0.949484
0.947611
0.941997
0.932666
0.919655
0.903013
0.882808
0.859119
0.832039
0.801676
0.768149
0.73159
0.692144
0.649967
0.605224
0.558093
0.508759
0.457418
0.404271
0.349529
0.293407
0.236127
0.177916
0.119002
0.0596186
1.83553e-16
-0.0596186
-0.119002
-0.177916
-0.236127
-0.293407
-0.349529
-0.404271
-0.457418
-0.508759
-0.558093
-0.605224
-0.649967
-0.692144
-0.73159
-0.768149
-0.801676
-0.832039
-0.859119
-0.882808
-0.903013
-0.919655
-0.932666
-0.941997
-0.947611
-0.949484
-0.947611
-0.941997
-0.932666
-0.919655
-0.903013
-0.882808
-0.859119
-0.832039
-0.801676
-0.768149
-0.73159
-0.692144
-0.649967
-0.605224
-0.558093
-0.508759
-0.457418
-0.404271
-0.349529
-0.293407
-0.236127
-0.177916
-0.119002
-0.0596186
0
0
0.0607173
0.121195
0.181194
0.240479
0.298814
0.35597
0.411721
0.465847
0.518135
0.568378
0.616378
0.661945
0.7049
0.745072
0.782305
0.81645
0.847373
0.874952
0.899077
0.919655
0.936603
0.949854
0.959357
0.965074
0.966982
0.965074
0.959357
0.949854
0.936603
0.919655
0.899077
0.874952
0.847373
0.81645
0.782305
0.745072
0.7049
0.661945
0.616378
0.568378
0.518135
0.465847
0.411721
0.35597
0.298814
0.240479
0.181194
0.121195
0.0607173
1.67077e-16
-0.0607173
-0.121195
-0.181194
-0.240479
-0.298814
-0.35597
-0.411721
-0.465847
-0.518135
-0.568378
-0.616378
-0.661945
-0.7049
-0.745072
-0.782305
-0.81645
-0.847373
-0.874952
-0.899077
-0.919655
-0.936603
-0.949854
-0.959357
-0.965074
-0.966982
-0.965074
-0.959357
-0.949854
-0.936603
-0.919655
-0.899077
-0.874952
-0.847373
-0.81645
-0.782305
-0.745072
-0.7049
-0.661945
-0.616378
-0.568378
-0.518135
-0.465847
-0.411721
-0.35597
-0.298814
-0.240479
-0.181194
-0.121195
-0.0607173
0
0
0.0615764
0.12291
0.183758
0.243881
0.303042
0.361006
0.417546
0.472438
0.525466
0.57642
0.625098
0.67131
0.714873
0.755614
0.793373
0.828002
0.859362
0.887331
0.911798
0.932666
0.949854
0.963293
0.972931
0.978728
0.980663
0.978728
0.972931
0.963293
0.949854
0.932666
0.911798
0.887331
0.859362
0.828002
0.793373
0.755614
0.714873
0.67131
0.625098
0.57642
0.525466
0.472438
0.417546
0.361006
0.303042
0.243881
0.183758
0.12291
0.0615764
2.01773e-16
-0.0615764
-0.12291
-0.183758
-0.243881
-0.303042
-0.361006
-0.417546
-0.472438
-0.525466
-0.57642
-0.625098
-0.67131
-0.714873
-0.755614
-0.793373
-0.828002
-0.859362
-0.887331
-0.911798
-0.932666
-0.949854
-0.963293
-0.972931
-0.978728
-0.980663
-0.978728
-0.972931
-0.963293
-0.949854
-0.932666
-0.911798
-0.887331
-0.859362
-0.828002
-0.793373
-0.755614
-0.714873
-0.67131
-0.625098
-0.57642
-0.525466
-0.472438
-0.417546
-0.361006
-0.303042
-0.243881
-0.183758
-0.12291
-0.0615764
0
0
0.0621924
0.124139
0.185596
0.246321
0.306074
0.364618
0.421724
0.477165
0.530723
0.582186
0.631352
0.678027
0.722025
0.763174
0.801311
0.836285
0.86796
0.896208
0.92092
0.941997
0.959357
0.972931
0.982664
0.98852
0.990475
0.98852
0.982664
0.972931
0.959357
0.941997
0.92092
0.896208
0.86796
0.836285
0.801311
0.763174
0.722025
0.678027
0.631352
0.582186
0.530723
0.477165
0.421724
0.364618
0.306074
0.246321
0.185596
0.124139
0.0621924
1.79472e-16
-0.0621924
-0.124139
-0.185596
-0.246321
-0.306074
-0.364618
-0.421724
-0.477165
-0.530723
-0.582186
-0.631352
-0.678027
-0.722025
-0.763174
-0.801311
-0.836285
-0.86796
-0.896208
-0.92092
-0.941997
-0.959357
-0.972931
-0.982664
-0.98852
-0.990475
-0.98852
-0.982664
-0.972931
-0.959357
-0.941997
-0.92092
-0.896208
-0.86796
-0.836285
-0.801311
-0.763174
-0.722025
-0.678027
-0.631352
-0.582186
-0.530723
-0.477165
-0.421724
-0.364618
-0.306074
-0.246321
-0.185596
-0.124139
-0.0621924
0
0
0.062563
0.124879
0.186702
0.247789
0.307897
0.366791
0.424237
0.480008
0.533885
0.585656
0.635115
0.682067
0.726328
0.767722
0.806086
0.841269
0.873132
0.901549
0.926408
0.947611
0.965074
0.978728
0.98852
0.994411
0.996377
0.994411
0.98852
0.978728
0.965074
0.947611
0.926408
0.901549
0.873132
0.841269
0.806086
0.767722
0.726328
0.682067
0.635115
0.585656
0.533885
0.480008
0.424237
0.366791
0.307897
0.247789
0.186702
0.124879
0.062563
2.11104e-16
-0.062563
-0.124879
-0.186702
-0.247789
-0.307897
-0.366791
-0.424237
-0.480008
-0.533885
-0.585656
-0.635115
-0.682067
-0.726328
-0.767722
-0.806086
-0.841269
-0.873132
-0.901549
-0.926408
-0.947611
-0.965074
-0.978728
-0.98852
-0.994411
-0.996377
-0.994411
-0.98852
-0.978728
-0.965074
-0.947611
-0.926408
-0.901549
-0.873132
-0.841269
-0.806086
-0.767722
-0.726328
-0.682067
-0.635115
-0.585656
-0.533885
-0.480008
-0.424237
-0.366791
-0.307897
-0.247789
-0.186702
-0.124879
-0.062563
0
0
0.0626867
0.125126
0.187072
0.248279
0.308506
0.367516
0.425075
0.480957
0.534941
0.586814
0.63637
0.683416
0.727764
0.76924
0.80768
0.842932
0.874858
0.903331
0.92824
0.949484
0.966982
0.980663
0.990475
0.996377
0.998347
0.996377
0.990475
0.980663
0.966982
0.949484
0.92824
0.903331
0.874858
0.842932
0.80768
0.76924
0.727764
0.683416
0.63637
0.586814
0.534941
0.480957
0.425075
0.367516
0.308506
0.248279
0.187072
0.125126
0.0626867
1.82413e-16
-0.0626867
-0.125126
-0.187072
-0.248279
-0.308506
-0.367516
-0.425075
-0.480957
-0.534941
-0.586814
-0.63637
-0.683416
-0.727764
-0.76924
-0.80768
-0.842932
-0.874858
-0.903331
-0.92824
-0.949484
-0.966982
-0.980663
-0.990475
-0.996377
-0.998347
-0.996377
-0.990475
-0.980663
-0.966982
-0.949484
-0.92824
-0.903331
-0.874858
-0.842932
-0.80768
-0.76924
-0.727764
-0.683416
-0.63637
-0.586814
-0.534941
-0.480957
-0.425075
-0.367516
-0.308506
-0.248279
-0.187072
-0.125126
-0.0626867
0
0
0.062563
0.124879
0.186702
0.247789
0.307897
0.366791
0.424237
0.480008
0.533885
0.585656
0.635115
0.682067
0.726328
0.767722
0.806086
0.841269
0.873132
0.901549
0.926408
0.947611
0.965074
0.978728
0.98852
0.994411
0.996377
0.994411
0.98852
0.978728
0.965074
0.947611
0.926408
0.901549
0.873132
0.841269
0.806086
0.767722
0.726328
0.682067
0.635115
0.585656
0.533885
0.480008
0.424237
0.366791
0.307897
0.247789
0.186702
0.124879
0.062563
2.21145e-16
-0.062563
-0.124879
-0.186702
-0.247789
-0.307897
-0.366791
-0.424237
-0.480008
-0.533885
-0.585656
-0.635115
-0.682067
-0.726328
-0.767722
-0.806086
-0.841269
-0.873132
-0.901549
-0.926408
-0.947611
-0.965074
-0.978728
-0.98852
-0.994411
-0.996377
-0.994411
-0.98852
-0.978728
-0.965074
-0.947611
-0.926408
-0.901549
-0.873132
-0.841269
-0.806086
-0.767722
-0.726328
-0.682067
-0.635115
-0.585656
-0.533885
-0.480008
-0.424237
-0.366791
-0.307897
-0.247789
-0.186702
-0.124879
-0.062563
0
0
0.0621924
0.124139
0.185596
0.246321
0.306074
0.364618
0.421724
0.477165
0.530723
0.582186
0.631352
0.678027
0.722025
0.763174
0.801311
0.836285
0.86796
0.896208
0.92092
0.941997
0.959357
0.972931
0.982664
0.98852
0.990475
0.98852
0.982664
0.972931
0.959357
0.941997
0.92092
0.896208
0.86796
0.836285
0.801311
0.763174
0.722025
0.678027
0.631352
0.582186
0.530723
0.477165
0.421724
0.364618
0.306074
0.246321
0.185596
0.124139
0.0621924
1.83717e-16
-0.0621924
-0.124139
-0.185596
-0.246321
-0.306074
-0.364618
-0.421724
-0.477165
-0.530723
-0.582186
-0.631352
-0.678027
-0.722025
-0.763174
-0.801311
-0.836285
-0.86796
-0.896208
-0.92092
-0.941997
-0.959357
-0.972931
-0.982664
-0.98852
-0.990475
-0.98852
-0.982664
-0.972931
-0.959357
-0.941997
-0.92092
-0.896208
-0.86796
-0.836285
-0.801311
-0.763174
-0.722025
-0.678027
-0.631352
-0.582186
-0.530723
-0.477165
-0.421724
-0.364618
-0.306074
-0.246321
-0.185596
-0.124139
-0.0621924
0
0
0.0615764
0.12291
0.183758
0.243881
0.303042
0.361006
0.417546
0.472438
0.525466
0.57642
0.625098
0.67131
0.714873
0.755614
0.793373
0.828002
0.859362
0.887331
0.911798
0.932666
0.949854
0.963293
0.972931
0.978728
0.980663
0.978728
0.972931
0.963293
0.949854
0.932666
0.911798
0.887331
0.859362
0.828002
0.793373
0.755614
0.714873
0.67131
0.625098
0.57642
0.525466
0.472438
0.417546
0.361006
0.303042
0.243881
0.183758
0.12291
0.0615764
2.19357e-16
-0.0615764
-0.12291
-0.183758
-0.243881
-0.303042
-0.361006
-0.417546
-0.472438
-0.525466
-0.57642
-0.625098
-0.67131
-0.714873
-0.755614
-0.793373
-0.828002
-0.859362
-0.887331
-0.911798
-0.932666
-0.949854
-0.963293
-0.972931
-0.978728
-0.980663
-0.978728
-0.972931
-0.963293
-0.949854
-0.932666
-0.911798
-0.887331
-0.859362
-0.828002
-0.793373
-0.755614
-0.714873
-0.67131
-0.625098
-0.57642
-0.525466
-0.472438
-0.417546
-0.361006
-0.303042
-0.243881
-0.183758
-0.12291
-0.0615764
0
0
0.0607173
0.121195
0.181194
0.240479
0.298814
0.35597
0.411721
0.465847
0.518135
0.568378
0.616378
0.661945
0.7049
0.745072
0.782305
0.81645
0.847373
0.874952
0.899077
0.919655
0.936603
0.949854
0.959357
0.965074
0.966982
0.965074
0.959357
0.949854
0.936603
0.919655
0.899077
0.874952
0.847373
0.81645
0.782305
0.745072
0.7049
0.661945
0.616378
0.568378
0.518135
0.465847
0.411721
0.35597
0.298814
0.240479
0.181194
0.121195
0.0607173
1.92288e-16
-0.0607173
-0.121195
-0.181194
-0.240479
-0.298814
-0.35597
-0.411721
-0.465847
-0.518135
-0.568378
-0.616378
-0.661945
-0.7049
-0.745072
-0.782305
-0.81645
-0.847373
-0.874952
-0.899077
-0.919655
-0.936603
-0.949854
-0.959357
-0.965074
-0.966982
-0.965074
-0.959357
-0.949854
-0.936603
-0.919655
-0.899077
-0.874952
-0.847373
-0.81645
-0.782305
-0.745072
-0.7049
-0.661945
-0.616378
-0.568378
-0.518135
-0.465847
-0.411721
-0.35597
-0.298814
-0.240479
-0.181194
-0.121195
-0.0607173
0
0
0.0596186
0.119002
0.177916
0.236127
0.293407
0.349529
0.404271
0.457418
0.508759
0.558093
0.605224
0.649967
0.692144
0.73159
0.768149
0.801676
0.832039
0.859119
0.882808
0.903013
0.919655
0.932666
0.941997
0.947611
0.949484
0.947611
0.941997
0.932666
0.919655
0.903013
0.882808
0.859119
0.832039
0.801676
0.768149
0.73159
0.692144
0.649967
0.605224
0.558093
0.508759
0.457418
0.404271
0.349529
0.293407
0.236127
0.177916
0.119002
0.0596186
2.14855e-16
-0.0596186
-0.119002
-0.177916
-0.236127
-0.293407
-0.349529
-0.404271
-0.457418
-0.508759
-0.558093
-0.605224
-0.649967
-0.692144
-0.73159
-0.768149
-0.801676
-0.832039
-0.859119
-0.882808
-0.903013
-0.919655
-0.932666
-0.941997
-0.947611
-0.949484
-0.947611
-0.941997
-0.932666
-0.919655
-0.903013
-0.882808
-0.859119
-0.832039
-0.801676
-0.768149
-0.73159
-0.692144
-0.649967
-0.605224
-0.558093
-0.508759
-0.457418
-0.404271
-0.349529
-0.293407
-0.236127
-0.177916
-0.119002
-0.0596186
0
0
0.0582846
0.116339
0.173935
0.230844
0.286842
0.341708
0.395225
0.447183
0.497376
0.545605
0.591682
0.635424
0.676657
0.715221
0.750962
0.783739
0.813422
0.839896
0.863055
0.882808
0.899077
0.911798
0.92092
0.926408
0.92824
0.926408
0.92092
0.911798
0.899077
0.882808
0.863055
0.839896
0.813422
0.783739
0.750962
0.715221
0.676657
0.635424
0.591682
0.545605
0.497376
0.447183
0.395225
0.341708
0.286842
0.230844
0.173935
0.116339
0.0582846
1.8168e-16
-0.0582846
-0.116339
-0.173935
-0.230844
-0.286842
-0.341708
-0.395225
-0.447183
-0.497376
-0.545605
-0.591682
-0.635424
-0.676657
-0.715221
-0.750962
-0.783739
-0.813422
-0.839896
-0.863055
-0.882808
-0.899077
-0.911798
-0.92092
-0.926408
-0.92824
-0.926408
-0.92092
-0.911798
-0.899077
-0.882808
-0.863055
-0.839896
-0.813422
-0.783739
-0.750962
-0.715221
-0.676657
-0.635424
-0.591682
-0.545605
-0.497376
-0.447183
-0.395225
-0.341708
-0.286842
-0.230844
-0.173935
-0.116339
-0.0582846
0
0
0.0567206
0.113217
0.169267
0.224649
0.279145
0.332538
0.38462
0.435183
0.484029
0.530965
0.575805
0.618373
0.6585
0.696029
0.73081
0.762708
0.791595
0.817359
0.839896
0.859119