# vtk DataFile Version 3.0
Scalar Field Data
ASCII
DATASET STRUCTURED_POINTS
DIMENSIONS 11 11 1
ORIGIN 0 0 0
SPACING 0.1 0.1 1
POINT_DATA 121
SCALARS scalars double
LOOKUP_TABLE default
0
0
0
0
0
0
0
0
0
0
0
0
0.357072
0.577755
0.577755
0.357072
2.36126e-17
-0.357072
-0.577755
-0.577755
-0.357072
0
0
0.577755
0.934827
0.934827
0.577755
3.55924e-17
-0.577755
-0.934827
-0.934827
-0.577755
0
0
0.577755
0.934827
0.934827
0.577755
3.52271e-17
-0.577755
-0.934827
-0.934827
-0.577755
0
0
0.357072
0.577755
0.577755
0.357072
1.11605e-17
-0.357072
-0.577755
-0.577755
-0.357072
0
0
1.42089e-17
2.29904e-17
2.29904e-17
2.80866e-17
7.38992e-18
2.74245e-17
3.25207e-17
3.25207e-17
2.74245e-17
0
0
-0.357072
-0.577755
-0.577755
-0.357072
4.15589e-17
0.357072
0.577755
0.577755
0.357072
0
0
-0.577755
-0.934827
-0.934827
-0.577755
-1.99135e-17
0.577755
0.934827
0.934827
0.577755
0
0
-0.577755
-0.934827
-0.934827
-0.577755
1.58617e-17
0.577755
0.934827
0.934827
0.577755
0
0
-0.357072
-0.577755
-0.577755
-0.357072
1.65836e-18
0.357072
0.577755
0.577755
0.357072
0
0
0
0
0
0
0
0
0
0
0
0
